# Region type : faceZone InSurface
# Faces  :      548
# Area   :      4.17307897e+01
# Time          	areaAverage(surfaceInterpolate(p))
0.002           
0.202           	0.00000000e+00
0.402           	0.00000000e+00
0.602           	1.37961943e-01
0.802           	1.37961943e-01
1.002           	1.37961943e-01
1.202           	2.33481210e-01
1.402           	2.33481210e-01
1.602           	2.94501645e-01
1.802           	2.94501645e-01
2.002           	2.94501645e-01
2.202           	2.81580937e-01
2.402           	2.81580937e-01
2.602           	2.78032938e-01
2.802           	2.78032938e-01
3.002           	2.78032938e-01
3.202           	2.60936281e-01
3.402           	2.60936281e-01
3.602           	2.50029041e-01
3.802           	2.50029041e-01
4.002           	2.50029041e-01
4.202           	2.28130788e-01
4.402           	2.28130788e-01
4.602           	2.13374286e-01
4.802           	2.13374286e-01
5.002           	2.13374286e-01
5.202           	2.13447825e-01
5.402           	2.13447825e-01
5.602           	2.19635176e-01
5.802           	2.19635176e-01
6.002           	2.19635176e-01
6.202           	2.34782573e-01
6.402           	2.34782573e-01
6.602           	2.48951425e-01
6.802           	2.48951425e-01
7.002           	2.48951425e-01
7.202           	2.35557096e-01
7.402           	2.35557096e-01
7.602           	2.24042842e-01
7.802           	2.24042842e-01
8.002           	2.24042842e-01
8.202           	2.14497569e-01
8.402           	2.14497569e-01
8.602           	1.96443990e-01
8.802           	1.96443990e-01
9.002           	1.96443990e-01
9.202           	1.57973794e-01
9.402           	1.57973794e-01
9.602           	1.48801285e-01
9.802           	1.48801285e-01
10.002          	1.48801285e-01
10.202          	1.79521472e-01
10.402          	1.79521472e-01
10.602          	2.15737124e-01
10.802          	2.15737124e-01
11.002          	2.15737124e-01
11.202          	2.14790348e-01
11.402          	2.14790348e-01
11.602          	2.24675655e-01
11.802          	2.24675655e-01
12.002          	2.24675655e-01
12.202          	2.20716902e-01
12.402          	2.20716902e-01
12.602          	2.34357262e-01
12.802          	2.34357262e-01
13.002          	2.34357262e-01
13.202          	2.27630554e-01
13.402          	2.27630554e-01
13.602          	2.06264878e-01
13.802          	2.06264878e-01
14.002          	2.06264878e-01
14.202          	1.80061461e-01
14.402          	1.80061461e-01
14.602          	1.54776306e-01
14.802          	1.54776306e-01
15.002          	1.54776306e-01
15.202          	1.52916388e-01
15.402          	1.52916388e-01
15.602          	1.79521353e-01
15.802          	1.79521353e-01
16.002          	1.79521353e-01
16.202          	2.04823253e-01
16.402          	2.04823253e-01
16.602          	2.09685791e-01
16.802          	2.09685791e-01
17.002          	2.09685791e-01
17.202          	2.03765437e-01
17.402          	2.03765437e-01
17.602          	2.06087657e-01
17.802          	2.06087657e-01
18.002          	2.06087657e-01
18.202          	1.98751622e-01
18.402          	1.98751622e-01
18.602          	1.78442023e-01
18.802          	1.78442023e-01
19.002          	1.78442023e-01
19.202          	1.61905414e-01
19.402          	1.61905414e-01
19.602          	1.44814203e-01
19.802          	1.44814203e-01
20.002          	1.44814203e-01
20.202          	1.46209951e-01
20.402          	1.46209951e-01
20.602          	1.88815786e-01
20.802          	1.88815786e-01
21.002          	1.88815786e-01
21.202          	2.14159867e-01
21.402          	2.14159867e-01
21.602          	2.14271781e-01
21.802          	2.14271781e-01
22.002          	2.14271781e-01
22.202          	2.11085905e-01
22.402          	2.11085905e-01
22.602          	2.07666881e-01
22.802          	2.07666881e-01
23.002          	2.07666881e-01
23.202          	1.95064056e-01
23.402          	1.95064056e-01
23.602          	1.84077534e-01
23.802          	1.84077534e-01
24.002          	1.84077534e-01
24.202          	1.69111641e-01
24.402          	1.69111641e-01
24.602          	1.53208566e-01
24.802          	1.53208566e-01
25.002          	1.53208566e-01
25.202          	1.57851993e-01
25.402          	1.57851993e-01
25.602          	1.96903175e-01
25.802          	1.96903175e-01
26.002          	1.96903175e-01
26.202          	2.12394376e-01
26.402          	2.12394376e-01
26.602          	2.11281070e-01
26.802          	2.11281070e-01
27.002          	2.11281070e-01
27.202          	2.15645282e-01
27.402          	2.15645282e-01
27.602          	2.13794346e-01
27.802          	2.13794346e-01
28.002          	2.13794346e-01
28.202          	1.98934483e-01
28.402          	1.98934483e-01
28.602          	1.83000479e-01
28.802          	1.83000479e-01
29.002          	1.83000479e-01
29.202          	1.70078265e-01
29.402          	1.70078265e-01
29.602          	1.56352858e-01
29.802          	1.56352858e-01
30.002          	1.56352858e-01
30.202          	1.61928888e-01
30.402          	1.61928888e-01
30.602          	1.86065527e-01
30.802          	1.86065527e-01
31.002          	1.86065527e-01
31.202          	1.99455465e-01
31.402          	1.99455465e-01
31.602          	1.98701653e-01
31.802          	1.98701653e-01
32.002          	1.98701653e-01
32.202          	2.02199257e-01
32.402          	2.02199257e-01
32.602          	2.03318338e-01
32.802          	2.03318338e-01
33.002          	2.03318338e-01
33.202          	1.91716721e-01
33.402          	1.91716721e-01
33.602          	1.77689931e-01
33.802          	1.77689931e-01
34.002          	1.77689931e-01
34.202          	1.67138140e-01
34.402          	1.67138140e-01
34.602          	1.70267864e-01
34.802          	1.70267864e-01
35.002          	1.70267864e-01
35.202          	1.91660887e-01
35.402          	1.91660887e-01
35.602          	1.99756243e-01
35.802          	1.99756243e-01
36.002          	1.99756243e-01
36.202          	1.97756159e-01
36.402          	1.97756159e-01
36.602          	1.97561331e-01
36.802          	1.97561331e-01
37.002          	1.97561331e-01
37.202          	1.97281029e-01
37.402          	1.97281029e-01
37.602          	1.90127975e-01
37.802          	1.90127975e-01
38.002          	1.90127975e-01
38.202          	1.77853895e-01
38.402          	1.77853895e-01
38.602          	1.65929618e-01
38.802          	1.65929618e-01
39.002          	1.65929618e-01
39.202          	1.64281880e-01
39.402          	1.64281880e-01
39.602          	1.85088560e-01
39.802          	1.85088560e-01
40.002          	1.85088560e-01
40.202          	2.04805185e-01
40.402          	2.04805185e-01
40.602          	2.00360987e-01
40.802          	2.00360987e-01
41.002          	2.00360987e-01
41.202          	1.94996364e-01
41.402          	1.94996364e-01
41.602          	1.92459384e-01
41.802          	1.92459384e-01
42.002          	1.92459384e-01
42.202          	1.87113887e-01
42.402          	1.87113887e-01
42.602          	1.79543204e-01
42.802          	1.79543204e-01
43.002          	1.79543204e-01
43.202          	1.70528630e-01
43.402          	1.70528630e-01
43.602          	1.66001790e-01
43.802          	1.66001790e-01
44.002          	1.66001790e-01
44.202          	1.78706868e-01
44.402          	1.78706868e-01
44.602          	1.99959343e-01
44.802          	1.99959343e-01
45.002          	1.99959343e-01
45.202          	2.05624632e-01
45.402          	2.05624632e-01
45.602          	2.04795049e-01
45.802          	2.04795049e-01
46.002          	2.04795049e-01
46.202          	2.03224058e-01
46.402          	2.03224058e-01
46.602          	1.95610189e-01
46.802          	1.95610189e-01
47.002          	1.95610189e-01
47.202          	1.83623412e-01
47.402          	1.83623412e-01
47.602          	1.71002431e-01
47.802          	1.71002431e-01
48.002          	1.71002431e-01
48.202          	1.62970722e-01
48.402          	1.62970722e-01
48.602          	1.72616587e-01
48.802          	1.72616587e-01
49.002          	1.72616587e-01
49.202          	1.97734166e-01
49.402          	1.97734166e-01
49.602          	2.08097647e-01
49.802          	2.08097647e-01
50.002          	2.08097647e-01
50.202          	2.06397996e-01
50.402          	2.06397996e-01
50.602          	2.05708871e-01
50.802          	2.05708871e-01
51.002          	2.05708871e-01
51.202          	2.00529651e-01
51.402          	2.00529651e-01
51.602          	1.88975717e-01
51.802          	1.88975717e-01
52.002          	1.88975717e-01
52.202          	1.77683087e-01
52.402          	1.77683087e-01
52.602          	1.68676674e-01
52.802          	1.68676674e-01
53.002          	1.68676674e-01
53.202          	1.67862154e-01
53.402          	1.67862154e-01
53.602          	1.87545894e-01
53.802          	1.87545894e-01
54.002          	1.87545894e-01
54.202          	2.09468697e-01
54.402          	2.09468697e-01
54.602          	2.09105969e-01
54.802          	2.09105969e-01
55.002          	2.09105969e-01
55.202          	2.02874943e-01
55.402          	2.02874943e-01
55.602          	1.99575504e-01
55.802          	1.99575504e-01
56.002          	1.99575504e-01
56.202          	1.95040424e-01
56.402          	1.95040424e-01
56.602          	1.84208953e-01
56.802          	1.84208953e-01
57.002          	1.84208953e-01
57.202          	1.70677952e-01
57.402          	1.70677952e-01
57.602          	1.66144323e-01
57.802          	1.66144323e-01
58.002          	1.66144323e-01
58.202          	1.80712713e-01
58.402          	1.80712713e-01
58.602          	2.00624495e-01
58.802          	2.00624495e-01
59.002          	2.00624495e-01
59.202          	2.07187436e-01
59.402          	2.07187436e-01
59.602          	2.07944070e-01
59.802          	2.07944070e-01
60.002          	2.07944070e-01
60.202          	2.09024030e-01
60.402          	2.09024030e-01
60.602          	2.02280933e-01
60.802          	2.02280933e-01
61.002          	2.02280933e-01
61.202          	1.86135754e-01
61.402          	1.86135754e-01
61.602          	1.71094395e-01
61.802          	1.71094395e-01
62.002          	1.71094395e-01
62.202          	1.66040057e-01
62.402          	1.66040057e-01
62.602          	1.77369574e-01
62.802          	1.77369574e-01
63.002          	1.77369574e-01
63.202          	1.99336512e-01
63.402          	1.99336512e-01
63.602          	2.09977539e-01
63.802          	2.09977539e-01
64.002          	2.09977539e-01
64.202          	2.12124515e-01
64.402          	2.12124515e-01
64.602          	2.13471736e-01
64.802          	2.13471736e-01
65.002          	2.13471736e-01
65.202          	2.08443322e-01
65.402          	2.08443322e-01
65.602          	1.94698124e-01
65.802          	1.94698124e-01
66.002          	1.94698124e-01
66.202          	1.81006358e-01
66.402          	1.81006358e-01
66.602          	1.70532399e-01
66.802          	1.70532399e-01
67.002          	1.70532399e-01
67.202          	1.72053439e-01
67.402          	1.72053439e-01
67.602          	1.88354686e-01
67.802          	1.88354686e-01
68.002          	1.88354686e-01
68.202          	2.06999308e-01
68.402          	2.06999308e-01
68.602          	2.12810769e-01
68.802          	2.12810769e-01
69.002          	2.12810769e-01
69.202          	2.09276797e-01
69.402          	2.09276797e-01
69.602          	2.03375741e-01
69.802          	2.03375741e-01
70.002          	2.03375741e-01
70.202          	1.95833643e-01
70.402          	1.95833643e-01
70.602          	1.87503611e-01
70.802          	1.87503611e-01
71.002          	1.87503611e-01
71.202          	1.80191261e-01
71.402          	1.80191261e-01
71.602          	1.75785914e-01
71.802          	1.75785914e-01
72.002          	1.75785914e-01
72.202          	1.84350957e-01
72.402          	1.84350957e-01
72.602          	2.03523429e-01
72.802          	2.03523429e-01
73.002          	2.03523429e-01
73.202          	2.12406653e-01
73.402          	2.12406653e-01
73.602          	2.10043092e-01
73.802          	2.10043092e-01
74.002          	2.10043092e-01
74.202          	2.02995656e-01
74.402          	2.02995656e-01
74.602          	1.95870167e-01
74.802          	1.95870167e-01
75.002          	1.95870167e-01
75.202          	1.87647008e-01
75.402          	1.87647008e-01
75.602          	1.79031560e-01
75.802          	1.79031560e-01
76.002          	1.79031560e-01
76.202          	1.76162484e-01
76.402          	1.76162484e-01
76.602          	1.84748704e-01
76.802          	1.84748704e-01
77.002          	1.84748704e-01
77.202          	2.00717336e-01
77.402          	2.00717336e-01
77.602          	2.09229808e-01
77.802          	2.09229808e-01
78.002          	2.09229808e-01
78.202          	2.07728647e-01
78.402          	2.07728647e-01
78.602          	2.03858074e-01
78.802          	2.03858074e-01
79.002          	2.03858074e-01
79.202          	2.01550235e-01
79.402          	2.01550235e-01
79.602          	1.92892165e-01
79.802          	1.92892165e-01
80.002          	1.92892165e-01
80.202          	1.85444126e-01
80.402          	1.85444126e-01
80.602          	1.85352375e-01
80.802          	1.85352375e-01
81.002          	1.85352375e-01
81.202          	1.89780677e-01
81.402          	1.89780677e-01
81.602          	1.94207867e-01
81.802          	1.94207867e-01
82.002          	1.94207867e-01
82.202          	2.00365719e-01
82.402          	2.00365719e-01
82.602          	2.02836186e-01
82.802          	2.02836186e-01
83.002          	2.02836186e-01
83.202          	1.99786118e-01
83.402          	1.99786118e-01
83.602          	1.93651911e-01
83.802          	1.93651911e-01
84.002          	1.93651911e-01
84.202          	1.89036249e-01
84.402          	1.89036249e-01
84.602          	1.88633046e-01
84.802          	1.88633046e-01
85.002          	1.88633046e-01
85.202          	1.89769298e-01
85.402          	1.89769298e-01
85.602          	1.91232416e-01
85.802          	1.91232416e-01
86.002          	1.91232416e-01
86.202          	1.94791300e-01
86.402          	1.94791300e-01
86.602          	2.01291121e-01
86.802          	2.01291121e-01
87.002          	2.01291121e-01
87.202          	2.02764927e-01
87.402          	2.02764927e-01
87.602          	1.99173725e-01
87.802          	1.99173725e-01
88.002          	1.99173725e-01
88.202          	1.94249883e-01
88.402          	1.94249883e-01
88.602          	1.93806768e-01
88.802          	1.93806768e-01
89.002          	1.93806768e-01
89.202          	1.93491676e-01
89.402          	1.93491676e-01
89.602          	1.93451638e-01
89.802          	1.93451638e-01
90.002          	1.93451638e-01
90.202          	1.94347651e-01
90.402          	1.94347651e-01
90.602          	1.95778358e-01
90.802          	1.95778358e-01
91.002          	1.95778358e-01
91.202          	1.99795405e-01
91.402          	1.99795405e-01
91.602          	2.00917994e-01
91.802          	2.00917994e-01
92.002          	2.00917994e-01
92.202          	1.96902638e-01
92.402          	1.96902638e-01
92.602          	1.91518260e-01
92.802          	1.91518260e-01
93.002          	1.91518260e-01
93.202          	1.92362601e-01
93.402          	1.92362601e-01
93.602          	1.96860276e-01
93.802          	1.96860276e-01
94.002          	1.96860276e-01
94.202          	1.98405416e-01
94.402          	1.98405416e-01
94.602          	1.97196652e-01
94.802          	1.97196652e-01
95.002          	1.97196652e-01
95.202          	1.99938058e-01
95.402          	1.99938058e-01
95.602          	2.04053554e-01
95.802          	2.04053554e-01
96.002          	2.04053554e-01
96.202          	2.01052609e-01
96.402          	2.01052609e-01
96.602          	1.94620943e-01
96.802          	1.94620943e-01
97.002          	1.94620943e-01
97.202          	1.93806295e-01
97.402          	1.93806295e-01
97.602          	1.95110217e-01
97.802          	1.95110217e-01
98.002          	1.95110217e-01
98.202          	1.94618635e-01
98.402          	1.94618635e-01
98.602          	1.93804961e-01
98.802          	1.93804961e-01
99.002          	1.93804961e-01
99.202          	1.91031304e-01
99.402          	1.91031304e-01
99.602          	1.92073329e-01
99.802          	1.92073329e-01
100.002         	1.92073329e-01
100.202         	1.96480464e-01
100.402         	1.96480464e-01
100.602         	1.99667193e-01
100.802         	1.99667193e-01
101.002         	1.99667193e-01
101.202         	1.98349620e-01
101.402         	1.98349620e-01
101.602         	1.96670740e-01
101.802         	1.96670740e-01
102.002         	1.96670740e-01
102.202         	1.96240975e-01
102.402         	1.96240975e-01
102.602         	1.94518409e-01
102.802         	1.94518409e-01
103.002         	1.94518409e-01
103.202         	1.92157099e-01
103.402         	1.92157099e-01
103.602         	1.92866712e-01
103.802         	1.92866712e-01
104.002         	1.92866712e-01
104.202         	1.94092550e-01
104.402         	1.94092550e-01
104.602         	1.97334988e-01
104.802         	1.97334988e-01
105.002         	1.97334988e-01
105.202         	1.98412000e-01
105.402         	1.98412000e-01
105.602         	1.99617302e-01
105.802         	1.99617302e-01
106.002         	1.99617302e-01
106.202         	2.02004960e-01
106.402         	2.02004960e-01
106.602         	2.01053086e-01
106.802         	2.01053086e-01
107.002         	2.01053086e-01
107.202         	1.97412786e-01
107.402         	1.97412786e-01
107.602         	1.94931624e-01
107.802         	1.94931624e-01
108.002         	1.94931624e-01
108.202         	1.94188032e-01
108.402         	1.94188032e-01
108.602         	1.93750431e-01
108.802         	1.93750431e-01
109.002         	1.93750431e-01
109.202         	1.93585113e-01
109.402         	1.93585113e-01
109.602         	1.96926766e-01
109.802         	1.96926766e-01
110.002         	1.96926766e-01
110.202         	2.01733863e-01
110.402         	2.01733863e-01
110.602         	2.01380317e-01
110.802         	2.01380317e-01
111.002         	2.01380317e-01
111.202         	1.96397774e-01
111.402         	1.96397774e-01
111.602         	1.92273636e-01
111.802         	1.92273636e-01
112.002         	1.92273636e-01
112.202         	1.95523221e-01
112.402         	1.95523221e-01
112.602         	1.99852217e-01
112.802         	1.99852217e-01
113.002         	1.99852217e-01
113.202         	1.95615768e-01
113.402         	1.95615768e-01
113.602         	1.95044022e-01
113.802         	1.95044022e-01
114.002         	1.95044022e-01
114.202         	2.02357286e-01
114.402         	2.02357286e-01
114.602         	2.03742359e-01
114.802         	2.03742359e-01
115.002         	2.03742359e-01
115.202         	1.97320634e-01
115.402         	1.97320634e-01
115.602         	1.91749118e-01
115.802         	1.91749118e-01
116.002         	1.91749118e-01
116.202         	1.93243375e-01
116.402         	1.93243375e-01
116.602         	1.97109142e-01
116.802         	1.97109142e-01
117.002         	1.97109142e-01
117.202         	1.93272278e-01
117.402         	1.93272278e-01
117.602         	1.87456059e-01
117.802         	1.87456059e-01
118.002         	1.87456059e-01
118.202         	1.91667599e-01
118.402         	1.91667599e-01
118.602         	1.99390485e-01
118.802         	1.99390485e-01
119.002         	1.99390485e-01
119.202         	2.01177587e-01
119.402         	2.01177587e-01
119.602         	1.97774145e-01
119.802         	1.97774145e-01
120.002         	1.97774145e-01
120.202         	1.97716298e-01
120.402         	1.97716298e-01
120.602         	1.99492143e-01
120.802         	1.99492143e-01
121.002         	1.99492143e-01
121.202         	2.00335459e-01
121.402         	2.00335459e-01
121.602         	1.96267417e-01
121.802         	1.96267417e-01
122.002         	1.96267417e-01
122.202         	1.92759537e-01
122.402         	1.92759537e-01
122.602         	1.97534475e-01
122.802         	1.97534475e-01
123.002         	1.97534475e-01
123.202         	2.01828581e-01
123.402         	2.01828581e-01
123.602         	2.03630313e-01
123.802         	2.03630313e-01
124.002         	2.03630313e-01
124.202         	2.04335068e-01
124.402         	2.04335068e-01
124.602         	2.05429560e-01
124.802         	2.05429560e-01
125.002         	2.05429560e-01
125.202         	2.06472410e-01
125.402         	2.06472410e-01
125.602         	2.02160344e-01
125.802         	2.02160344e-01
126.002         	2.02160344e-01
126.202         	1.95780091e-01
126.402         	1.95780091e-01
126.602         	1.90554253e-01
126.802         	1.90554253e-01
127.002         	1.90554253e-01
127.202         	1.91266434e-01
127.402         	1.91266434e-01
127.602         	1.95499384e-01
127.802         	1.95499384e-01
128.002         	1.95499384e-01
128.202         	1.98553741e-01
128.402         	1.98553741e-01
128.602         	2.04425432e-01
128.802         	2.04425432e-01
129.002         	2.04425432e-01
129.202         	2.06723237e-01
129.402         	2.06723237e-01
129.602         	2.06253067e-01
129.802         	2.06253067e-01
130.002         	2.06253067e-01
130.202         	2.04009184e-01
130.402         	2.04009184e-01
130.602         	1.99724318e-01
130.802         	1.99724318e-01
131.002         	1.99724318e-01
131.202         	1.97131199e-01
131.402         	1.97131199e-01
131.602         	1.97125086e-01
131.802         	1.97125086e-01
132.002         	1.97125086e-01
132.202         	1.99357335e-01
132.402         	1.99357335e-01
132.602         	2.03930100e-01
132.802         	2.03930100e-01
133.002         	2.03930100e-01
133.202         	2.04142596e-01
133.402         	2.04142596e-01
133.602         	2.01798041e-01
133.802         	2.01798041e-01
134.002         	2.01798041e-01
134.202         	1.98798842e-01
134.402         	1.98798842e-01
134.602         	1.96152076e-01
134.802         	1.96152076e-01
135.002         	1.96152076e-01
135.202         	1.99857374e-01
135.402         	1.99857374e-01
135.602         	2.02454529e-01
135.802         	2.02454529e-01
136.002         	2.02454529e-01
136.202         	2.02306247e-01
136.402         	2.02306247e-01
136.602         	2.04291538e-01
136.802         	2.04291538e-01
137.002         	2.04291538e-01
137.202         	2.01917308e-01
137.402         	2.01917308e-01
137.602         	1.98553994e-01
137.802         	1.98553994e-01
138.002         	1.98553994e-01
138.202         	1.96963148e-01
138.402         	1.96963148e-01
138.602         	1.98817044e-01
138.802         	1.98817044e-01
139.002         	1.98817044e-01
139.202         	2.04487685e-01
139.402         	2.04487685e-01
139.602         	2.07587341e-01
139.802         	2.07587341e-01
140.002         	2.07587341e-01
140.202         	2.05217950e-01
140.402         	2.05217950e-01
140.602         	2.02895541e-01
140.802         	2.02895541e-01
141.002         	2.02895541e-01
141.202         	1.98360426e-01
141.402         	1.98360426e-01
141.602         	1.95134368e-01
141.802         	1.95134368e-01
142.002         	1.95134368e-01
142.202         	1.92884622e-01
142.402         	1.92884622e-01
142.602         	1.92946892e-01
142.802         	1.92946892e-01
143.002         	1.92946892e-01
143.202         	1.97804411e-01
143.402         	1.97804411e-01
143.602         	2.04739925e-01
143.802         	2.04739925e-01
144.002         	2.04739925e-01
144.202         	2.07687282e-01
144.402         	2.07687282e-01
144.602         	2.04990929e-01
144.802         	2.04990929e-01
145.002         	2.04990929e-01
145.202         	2.01912520e-01
145.402         	2.01912520e-01
145.602         	2.01101454e-01
145.802         	2.01101454e-01
146.002         	2.01101454e-01
146.202         	1.96911023e-01
146.402         	1.96911023e-01
146.602         	1.92473420e-01
146.802         	1.92473420e-01
147.002         	1.92473420e-01
147.202         	1.94136849e-01
147.402         	1.94136849e-01
147.602         	1.99388714e-01
147.802         	1.99388714e-01
148.002         	1.99388714e-01
148.202         	2.04305097e-01
148.402         	2.04305097e-01
148.602         	2.06893337e-01
148.802         	2.06893337e-01
149.002         	2.06893337e-01
149.202         	2.07961331e-01
149.402         	2.07961331e-01
149.602         	2.03987325e-01
149.802         	2.03987325e-01
150.002         	2.03987325e-01
150.202         	1.97654264e-01
150.402         	1.97654264e-01
150.602         	1.93860751e-01
150.802         	1.93860751e-01
151.002         	1.93860751e-01
151.202         	1.94084580e-01
151.402         	1.94084580e-01
151.602         	1.97698971e-01
151.802         	1.97698971e-01
152.002         	1.97698971e-01
152.202         	2.03715395e-01
152.402         	2.03715395e-01
152.602         	2.08919875e-01
152.802         	2.08919875e-01
153.002         	2.08919875e-01
153.202         	2.08371258e-01
153.402         	2.08371258e-01
153.602         	2.05388068e-01
153.802         	2.05388068e-01
154.002         	2.05388068e-01
154.202         	2.00455633e-01
154.402         	2.00455633e-01
154.602         	1.95336820e-01
154.802         	1.95336820e-01
155.002         	1.95336820e-01
155.202         	1.92043942e-01
155.402         	1.92043942e-01
155.602         	1.94613713e-01
155.802         	1.94613713e-01
156.002         	1.94613713e-01
156.202         	2.02069911e-01
156.402         	2.02069911e-01
156.602         	2.07975679e-01
156.802         	2.07975679e-01
157.002         	2.07975679e-01
157.202         	2.09319744e-01
157.402         	2.09319744e-01
157.602         	2.07962891e-01
157.802         	2.07962891e-01
158.002         	2.07962891e-01
158.202         	2.03590239e-01
158.402         	2.03590239e-01
158.602         	1.99952492e-01
158.802         	1.99952492e-01
159.002         	1.99952492e-01
159.202         	1.98678071e-01
159.402         	1.98678071e-01
159.602         	1.99677318e-01
159.802         	1.99677318e-01
160.002         	1.99677318e-01
160.202         	2.01352916e-01
160.402         	2.01352916e-01
160.602         	2.01776667e-01
160.802         	2.01776667e-01
161.002         	2.01776667e-01
161.202         	2.00676144e-01
161.402         	2.00676144e-01
161.602         	2.02241530e-01
161.802         	2.02241530e-01
162.002         	2.02241530e-01
162.202         	2.04768206e-01
162.402         	2.04768206e-01
162.602         	2.03480673e-01
162.802         	2.03480673e-01
163.002         	2.03480673e-01
163.202         	2.03994168e-01
163.402         	2.03994168e-01
163.602         	2.07681679e-01
163.802         	2.07681679e-01
164.002         	2.07681679e-01
164.202         	2.12261265e-01
164.402         	2.12261265e-01
164.602         	2.10834732e-01
164.802         	2.10834732e-01
165.002         	2.10834732e-01
165.202         	2.01467044e-01
165.402         	2.01467044e-01
165.602         	1.95502827e-01
165.802         	1.95502827e-01
166.002         	1.95502827e-01
166.202         	1.98150471e-01
166.402         	1.98150471e-01
166.602         	1.99415420e-01
166.802         	1.99415420e-01
167.002         	1.99415420e-01
167.202         	1.99917407e-01
167.402         	1.99917407e-01
167.602         	2.05184565e-01
167.802         	2.05184565e-01
168.002         	2.05184565e-01
168.202         	2.11747842e-01
168.402         	2.11747842e-01
168.602         	2.14620495e-01
168.802         	2.14620495e-01
169.002         	2.14620495e-01
169.202         	2.08570408e-01
169.402         	2.08570408e-01
169.602         	2.01776928e-01
169.802         	2.01776928e-01
170.002         	2.01776928e-01
170.202         	1.99433019e-01
170.402         	1.99433019e-01
170.602         	1.95063635e-01
170.802         	1.95063635e-01
171.002         	1.95063635e-01
171.202         	1.91815640e-01
171.402         	1.91815640e-01
171.602         	1.96142610e-01
171.802         	1.96142610e-01
172.002         	1.96142610e-01
172.202         	2.04803308e-01
172.402         	2.04803308e-01
172.602         	2.11532251e-01
172.802         	2.11532251e-01
173.002         	2.11532251e-01
173.202         	2.11556020e-01
173.402         	2.11556020e-01
173.602         	2.07029798e-01
173.802         	2.07029798e-01
174.002         	2.07029798e-01
174.202         	2.04249933e-01
174.402         	2.04249933e-01
174.602         	2.01754269e-01
174.802         	2.01754269e-01
175.002         	2.01754269e-01
175.202         	1.98757543e-01
175.402         	1.98757543e-01
175.602         	1.99889810e-01
175.802         	1.99889810e-01
176.002         	1.99889810e-01
176.202         	2.04846261e-01
176.402         	2.04846261e-01
176.602         	2.09375285e-01
176.802         	2.09375285e-01
177.002         	2.09375285e-01
177.202         	2.08628566e-01
177.402         	2.08628566e-01
177.602         	2.03796285e-01
177.802         	2.03796285e-01
178.002         	2.03796285e-01
178.202         	2.02412946e-01
178.402         	2.02412946e-01
178.602         	2.02005201e-01
178.802         	2.02005201e-01
179.002         	2.02005201e-01
179.202         	2.03788862e-01
179.402         	2.03788862e-01
179.602         	2.07195061e-01
179.802         	2.07195061e-01
180.002         	2.07195061e-01
180.202         	2.07795828e-01
180.402         	2.07795828e-01
180.602         	2.10196144e-01
180.802         	2.10196144e-01
181.002         	2.10196144e-01
181.202         	2.10109658e-01
181.402         	2.10109658e-01
181.602         	2.01684571e-01
181.802         	2.01684571e-01
182.002         	2.01684571e-01
182.202         	1.98787984e-01
182.402         	1.98787984e-01
182.602         	1.99065845e-01
182.802         	1.99065845e-01
183.002         	1.99065845e-01
183.202         	1.98812683e-01
183.402         	1.98812683e-01
183.602         	2.02755750e-01
183.802         	2.02755750e-01
184.002         	2.02755750e-01
184.202         	2.07853592e-01
184.402         	2.07853592e-01
184.602         	2.13115828e-01
184.802         	2.13115828e-01
185.002         	2.13115828e-01
185.202         	2.14083536e-01
185.402         	2.14083536e-01
185.602         	2.06203580e-01
185.802         	2.06203580e-01
186.002         	2.06203580e-01
186.202         	2.00672947e-01
186.402         	2.00672947e-01