# Region type : faceZone OutSurface
# Faces  :      514
# Area   :      4.06369499e+01
# Time          	areaAverage(surfaceInterpolate(p))
0.002           
0.042           	0.00000000e+00
0.178           	0.00000000e+00
0.338           	0.00000000e+00
0.532           	0.00000000e+00
0.732           	0.00000000e+00
0.932           	0.00000000e+00
1.132           	0.00000000e+00
1.332           	0.00000000e+00
1.532           	0.00000000e+00
1.732           	0.00000000e+00
1.932           	0.00000000e+00
2.132           	-1.31651681e-01
2.332           	-1.31651681e-01
2.532           	-1.31651681e-01
2.732           	-1.31651681e-01
2.932           	-1.31651681e-01
3.132           	-1.31651681e-01
3.332           	-1.31651681e-01
3.532           	-1.31651681e-01
3.732           	-1.31651681e-01
3.932           	-1.31651681e-01
4.132           	-5.12699669e-02
4.332           	-5.12699669e-02
4.532           	-5.12699669e-02
4.732           	-5.12699669e-02
4.932           	-5.12699669e-02
5.132           	-5.12699669e-02
5.332           	-5.12699669e-02
5.532           	-5.12699669e-02
5.732           	-5.12699669e-02
5.932           	-5.12699669e-02
6.132           	-2.45822129e-02
6.332           	-2.45822129e-02
6.532           	-2.45822129e-02
6.732           	-2.45822129e-02
6.932           	-2.45822129e-02
7.132           	-2.45822129e-02
7.332           	-2.45822129e-02
7.532           	-2.45822129e-02
7.732           	-2.45822129e-02
7.932           	-2.45822129e-02
8.132           	-6.83091683e-02
8.332           	-6.83091683e-02
8.532           	-6.83091683e-02
8.732           	-6.83091683e-02
8.932           	-6.83091683e-02
9.132           	-6.83091683e-02
9.332           	-6.83091683e-02
9.532           	-6.83091683e-02
9.732           	-6.83091683e-02
9.932           	-6.83091683e-02
10.132          	-1.02566315e-01
10.332          	-1.02566315e-01
10.532          	-1.02566315e-01
10.732          	-1.02566315e-01
10.932          	-1.02566315e-01
11.132          	-1.02566315e-01
11.332          	-1.02566315e-01
11.532          	-1.02566315e-01
11.732          	-1.02566315e-01
11.932          	-1.02566315e-01
12.132          	-1.37221377e-01
12.332          	-1.37221377e-01
12.532          	-1.37221377e-01
12.732          	-1.37221377e-01
12.932          	-1.37221377e-01
13.132          	-1.37221377e-01
13.332          	-1.37221377e-01
13.532          	-1.37221377e-01
13.732          	-1.37221377e-01
13.932          	-1.37221377e-01
14.132          	-1.99141647e-01
14.332          	-1.99141647e-01
14.532          	-1.99141647e-01
14.732          	-1.99141647e-01
14.932          	-1.99141647e-01
15.132          	-1.99141647e-01
15.332          	-1.99141647e-01
15.532          	-1.99141647e-01
15.732          	-1.99141647e-01
15.932          	-1.99141647e-01
16.132          	-1.69641540e-01
16.332          	-1.69641540e-01
16.532          	-1.69641540e-01
16.732          	-1.69641540e-01
16.932          	-1.69641540e-01
17.132          	-1.69641540e-01
17.332          	-1.69641540e-01
17.532          	-1.69641540e-01
17.732          	-1.69641540e-01
17.932          	-1.69641540e-01
18.132          	-2.22464116e-01
18.332          	-2.22464116e-01
18.532          	-2.22464116e-01
18.732          	-2.22464116e-01
18.932          	-2.22464116e-01
19.132          	-2.22464116e-01
19.332          	-2.22464116e-01
19.532          	-2.22464116e-01
19.732          	-2.22464116e-01
19.932          	-2.22464116e-01
20.132          	-1.66780044e-01
20.332          	-1.66780044e-01
20.532          	-1.66780044e-01
20.732          	-1.66780044e-01
20.932          	-1.66780044e-01
21.132          	-1.66780044e-01
21.332          	-1.66780044e-01
21.532          	-1.66780044e-01
21.732          	-1.66780044e-01
21.932          	-1.66780044e-01
22.132          	-1.67796646e-01
22.332          	-1.67796646e-01
22.532          	-1.67796646e-01
22.732          	-1.67796646e-01
22.932          	-1.67796646e-01
23.132          	-1.67796646e-01
23.332          	-1.67796646e-01
23.532          	-1.67796646e-01
23.732          	-1.67796646e-01
23.932          	-1.67796646e-01
24.132          	-2.29684807e-01
24.332          	-2.29684807e-01
24.532          	-2.29684807e-01
24.732          	-2.29684807e-01
24.932          	-2.29684807e-01
25.132          	-2.29684807e-01
25.332          	-2.29684807e-01
25.532          	-2.29684807e-01
25.732          	-2.29684807e-01
25.932          	-2.29684807e-01
26.132          	-1.75009959e-01
26.332          	-1.75009959e-01
26.532          	-1.75009959e-01
26.732          	-1.75009959e-01
26.932          	-1.75009959e-01
27.132          	-1.75009959e-01
27.332          	-1.75009959e-01
27.532          	-1.75009959e-01
27.732          	-1.75009959e-01
27.932          	-1.75009959e-01
28.132          	-1.58361462e-01
28.332          	-1.58361462e-01
28.532          	-1.58361462e-01
28.732          	-1.58361462e-01
28.932          	-1.58361462e-01
29.132          	-1.58361462e-01
29.332          	-1.58361462e-01
29.532          	-1.58361462e-01
29.732          	-1.58361462e-01
29.932          	-1.58361462e-01
30.132          	-1.63569757e-01
30.332          	-1.63569757e-01
30.532          	-1.63569757e-01
30.732          	-1.63569757e-01
30.932          	-1.63569757e-01
31.132          	-1.63569757e-01
31.332          	-1.63569757e-01
31.532          	-1.63569757e-01
31.732          	-1.63569757e-01
31.932          	-1.63569757e-01
32.132          	-1.58875102e-01
32.332          	-1.58875102e-01
32.532          	-1.58875102e-01
32.732          	-1.58875102e-01
32.932          	-1.58875102e-01
33.132          	-1.58875102e-01
33.332          	-1.58875102e-01
33.532          	-1.58875102e-01
33.732          	-1.58875102e-01
33.932          	-1.58875102e-01
34.132          	-1.49117938e-01
34.332          	-1.49117938e-01
34.532          	-1.49117938e-01
34.732          	-1.49117938e-01
34.932          	-1.49117938e-01
35.132          	-1.49117938e-01
35.332          	-1.49117938e-01
35.532          	-1.49117938e-01
35.732          	-1.49117938e-01
35.932          	-1.49117938e-01
36.132          	-1.43052700e-01
36.332          	-1.43052700e-01
36.532          	-1.43052700e-01
36.732          	-1.43052700e-01
36.932          	-1.43052700e-01
37.132          	-1.43052700e-01
37.332          	-1.43052700e-01
37.532          	-1.43052700e-01
37.732          	-1.43052700e-01
37.932          	-1.43052700e-01
38.132          	-1.45809320e-01
38.332          	-1.45809320e-01
38.532          	-1.45809320e-01
38.732          	-1.45809320e-01
38.932          	-1.45809320e-01
39.132          	-1.45809320e-01
39.332          	-1.45809320e-01
39.532          	-1.45809320e-01
39.732          	-1.45809320e-01
39.932          	-1.45809320e-01
40.132          	-1.43179232e-01
40.332          	-1.43179232e-01
40.532          	-1.43179232e-01
40.732          	-1.43179232e-01
40.932          	-1.43179232e-01
41.132          	-1.43179232e-01
41.332          	-1.43179232e-01
41.532          	-1.43179232e-01
41.732          	-1.43179232e-01
41.932          	-1.43179232e-01
42.132          	-1.35226438e-01
42.332          	-1.35226438e-01
42.532          	-1.35226438e-01
42.732          	-1.35226438e-01
42.932          	-1.35226438e-01
43.132          	-1.35226438e-01
43.332          	-1.35226438e-01
43.532          	-1.35226438e-01
43.732          	-1.35226438e-01
43.932          	-1.35226438e-01
44.132          	-1.39824890e-01
44.332          	-1.39824890e-01
44.532          	-1.39824890e-01
44.732          	-1.39824890e-01
44.932          	-1.39824890e-01
45.132          	-1.39824890e-01
45.332          	-1.39824890e-01
45.532          	-1.39824890e-01
45.732          	-1.39824890e-01
45.932          	-1.39824890e-01
46.132          	-1.54232798e-01
46.332          	-1.54232798e-01
46.532          	-1.54232798e-01
46.732          	-1.54232798e-01
46.932          	-1.54232798e-01
47.132          	-1.54232798e-01
47.332          	-1.54232798e-01
47.532          	-1.54232798e-01
47.732          	-1.54232798e-01
47.932          	-1.54232798e-01
48.132          	-1.46173285e-01
48.332          	-1.46173285e-01
48.532          	-1.46173285e-01
48.732          	-1.46173285e-01
48.932          	-1.46173285e-01
49.132          	-1.46173285e-01
49.332          	-1.46173285e-01
49.532          	-1.46173285e-01
49.732          	-1.46173285e-01
49.932          	-1.46173285e-01
50.132          	-1.27731288e-01
50.332          	-1.27731288e-01
50.532          	-1.27731288e-01
50.732          	-1.27731288e-01
50.932          	-1.27731288e-01
51.132          	-1.27731288e-01
51.332          	-1.27731288e-01
51.532          	-1.27731288e-01
51.732          	-1.27731288e-01
51.932          	-1.27731288e-01
52.132          	-1.42387030e-01
52.332          	-1.42387030e-01
52.532          	-1.42387030e-01
52.732          	-1.42387030e-01
52.932          	-1.42387030e-01
53.132          	-1.42387030e-01
53.332          	-1.42387030e-01
53.532          	-1.42387030e-01
53.732          	-1.42387030e-01
53.932          	-1.42387030e-01
54.132          	-1.45671874e-01
54.332          	-1.45671874e-01
54.532          	-1.45671874e-01
54.732          	-1.45671874e-01
54.932          	-1.45671874e-01
55.132          	-1.45671874e-01
55.332          	-1.45671874e-01
55.532          	-1.45671874e-01
55.732          	-1.45671874e-01
55.932          	-1.45671874e-01
56.132          	-1.30673789e-01
56.332          	-1.30673789e-01
56.532          	-1.30673789e-01
56.732          	-1.30673789e-01
56.932          	-1.30673789e-01
57.132          	-1.30673789e-01
57.332          	-1.30673789e-01
57.532          	-1.30673789e-01
57.732          	-1.30673789e-01
57.932          	-1.30673789e-01
58.132          	-1.50311705e-01
58.332          	-1.50311705e-01
58.532          	-1.50311705e-01
58.732          	-1.50311705e-01
58.932          	-1.50311705e-01
59.132          	-1.50311705e-01
59.332          	-1.50311705e-01
59.532          	-1.50311705e-01
59.732          	-1.50311705e-01
59.932          	-1.50311705e-01
60.132          	-1.16164384e-01
60.332          	-1.16164384e-01
60.532          	-1.16164384e-01
60.732          	-1.16164384e-01
60.932          	-1.16164384e-01
61.132          	-1.16164384e-01
61.332          	-1.16164384e-01
61.532          	-1.16164384e-01
61.732          	-1.16164384e-01
61.932          	-1.16164384e-01
62.132          	-1.39544923e-01
62.332          	-1.39544923e-01
62.532          	-1.39544923e-01
62.732          	-1.39544923e-01
62.932          	-1.39544923e-01
63.132          	-1.39544923e-01
63.332          	-1.39544923e-01
63.532          	-1.39544923e-01
63.732          	-1.39544923e-01
63.932          	-1.39544923e-01
64.132          	-1.30421685e-01
64.332          	-1.30421685e-01
64.532          	-1.30421685e-01
64.732          	-1.30421685e-01
64.932          	-1.30421685e-01
65.132          	-1.30421685e-01
65.332          	-1.30421685e-01
65.532          	-1.30421685e-01
65.732          	-1.30421685e-01
65.932          	-1.30421685e-01
66.132          	-1.27701194e-01
66.332          	-1.27701194e-01
66.532          	-1.27701194e-01
66.732          	-1.27701194e-01
66.932          	-1.27701194e-01
67.132          	-1.27701194e-01
67.332          	-1.27701194e-01
67.532          	-1.27701194e-01
67.732          	-1.27701194e-01
67.932          	-1.27701194e-01
68.132          	-1.31834066e-01
68.332          	-1.31834066e-01
68.532          	-1.31834066e-01
68.732          	-1.31834066e-01
68.932          	-1.31834066e-01
69.132          	-1.31834066e-01
69.332          	-1.31834066e-01
69.532          	-1.31834066e-01
69.732          	-1.31834066e-01
69.932          	-1.31834066e-01
70.132          	-1.19838286e-01
70.332          	-1.19838286e-01
70.532          	-1.19838286e-01
70.732          	-1.19838286e-01
70.932          	-1.19838286e-01
71.132          	-1.19838286e-01
71.332          	-1.19838286e-01
71.532          	-1.19838286e-01
71.732          	-1.19838286e-01
71.932          	-1.19838286e-01
72.132          	-1.32063895e-01
72.332          	-1.32063895e-01
72.532          	-1.32063895e-01
72.732          	-1.32063895e-01
72.932          	-1.32063895e-01
73.132          	-1.32063895e-01
73.332          	-1.32063895e-01
73.532          	-1.32063895e-01
73.732          	-1.32063895e-01
73.932          	-1.32063895e-01
74.132          	-1.34122473e-01
74.332          	-1.34122473e-01
74.532          	-1.34122473e-01
74.732          	-1.34122473e-01
74.932          	-1.34122473e-01
75.132          	-1.34122473e-01
75.332          	-1.34122473e-01
75.532          	-1.34122473e-01
75.732          	-1.34122473e-01
75.932          	-1.34122473e-01
76.132          	-1.24200347e-01
76.332          	-1.24200347e-01
76.532          	-1.24200347e-01
76.732          	-1.24200347e-01
76.932          	-1.24200347e-01
77.132          	-1.24200347e-01
77.332          	-1.24200347e-01
77.532          	-1.24200347e-01
77.732          	-1.24200347e-01
77.932          	-1.24200347e-01
78.132          	-1.30424102e-01
78.332          	-1.30424102e-01
78.532          	-1.30424102e-01
78.732          	-1.30424102e-01
78.932          	-1.30424102e-01
79.132          	-1.30424102e-01
79.332          	-1.30424102e-01
79.532          	-1.30424102e-01
79.732          	-1.30424102e-01
79.932          	-1.30424102e-01
80.132          	-1.21113543e-01
80.332          	-1.21113543e-01
80.532          	-1.21113543e-01
80.732          	-1.21113543e-01
80.932          	-1.21113543e-01
81.132          	-1.21113543e-01
81.332          	-1.21113543e-01
81.532          	-1.21113543e-01
81.732          	-1.21113543e-01
81.932          	-1.21113543e-01
82.132          	-1.21856735e-01
82.332          	-1.21856735e-01
82.532          	-1.21856735e-01
82.732          	-1.21856735e-01
82.932          	-1.21856735e-01
83.132          	-1.21856735e-01
83.332          	-1.21856735e-01
83.532          	-1.21856735e-01
83.732          	-1.21856735e-01
83.932          	-1.21856735e-01
84.132          	-1.09955744e-01
84.332          	-1.09955744e-01
84.532          	-1.09955744e-01
84.732          	-1.09955744e-01
84.932          	-1.09955744e-01
85.132          	-1.09955744e-01
85.332          	-1.09955744e-01
85.532          	-1.09955744e-01
85.732          	-1.09955744e-01
85.932          	-1.09955744e-01
86.132          	-1.17478417e-01
86.332          	-1.17478417e-01
86.532          	-1.17478417e-01
86.732          	-1.17478417e-01
86.932          	-1.17478417e-01
87.132          	-1.17478417e-01
87.332          	-1.17478417e-01
87.532          	-1.17478417e-01
87.732          	-1.17478417e-01
87.932          	-1.17478417e-01
88.132          	-1.41930054e-01
88.332          	-1.41930054e-01
88.532          	-1.41930054e-01
88.732          	-1.41930054e-01
88.932          	-1.41930054e-01
89.132          	-1.41930054e-01
89.332          	-1.41930054e-01
89.532          	-1.41930054e-01
89.732          	-1.41930054e-01
89.932          	-1.41930054e-01
90.132          	-1.19978217e-01
90.332          	-1.19978217e-01
90.532          	-1.19978217e-01
90.732          	-1.19978217e-01
90.932          	-1.19978217e-01
91.132          	-1.19978217e-01
91.332          	-1.19978217e-01
91.532          	-1.19978217e-01
91.732          	-1.19978217e-01
91.932          	-1.19978217e-01
92.132          	-1.28462168e-01
92.332          	-1.28462168e-01
92.532          	-1.28462168e-01
92.732          	-1.28462168e-01
92.932          	-1.28462168e-01
93.132          	-1.28462168e-01
93.332          	-1.28462168e-01
93.532          	-1.28462168e-01
93.732          	-1.28462168e-01
93.932          	-1.28462168e-01
94.132          	-1.17431960e-01
94.332          	-1.17431960e-01
94.532          	-1.17431960e-01
94.732          	-1.17431960e-01
94.932          	-1.17431960e-01
95.132          	-1.17431960e-01
95.332          	-1.17431960e-01
95.532          	-1.17431960e-01
95.732          	-1.17431960e-01
95.932          	-1.17431960e-01
96.132          	-1.14049221e-01
96.332          	-1.14049221e-01
96.532          	-1.14049221e-01
96.732          	-1.14049221e-01
96.932          	-1.14049221e-01
97.132          	-1.14049221e-01
97.332          	-1.14049221e-01
97.532          	-1.14049221e-01
97.732          	-1.14049221e-01
97.932          	-1.14049221e-01
98.132          	-1.24589073e-01
98.332          	-1.24589073e-01
98.532          	-1.24589073e-01
98.732          	-1.24589073e-01
98.932          	-1.24589073e-01
99.132          	-1.24589073e-01
99.332          	-1.24589073e-01
99.532          	-1.24589073e-01
99.732          	-1.24589073e-01
99.932          	-1.24589073e-01
100.132         	-1.10653645e-01
100.332         	-1.10653645e-01
100.532         	-1.10653645e-01
100.732         	-1.10653645e-01
100.932         	-1.10653645e-01
101.132         	-1.10653645e-01
101.332         	-1.10653645e-01
101.532         	-1.10653645e-01
101.732         	-1.10653645e-01
101.932         	-1.10653645e-01
102.132         	-1.16331090e-01
102.332         	-1.16331090e-01
102.532         	-1.16331090e-01
102.732         	-1.16331090e-01
102.932         	-1.16331090e-01
103.132         	-1.16331090e-01
103.332         	-1.16331090e-01
103.532         	-1.16331090e-01
103.732         	-1.16331090e-01
103.932         	-1.16331090e-01
104.132         	-1.19200616e-01
104.332         	-1.19200616e-01
104.532         	-1.19200616e-01
104.732         	-1.19200616e-01
104.932         	-1.19200616e-01
105.132         	-1.19200616e-01
105.332         	-1.19200616e-01
105.532         	-1.19200616e-01
105.732         	-1.19200616e-01
105.932         	-1.19200616e-01
106.132         	-1.42762835e-01
106.332         	-1.42762835e-01
106.532         	-1.42762835e-01
106.732         	-1.42762835e-01
106.932         	-1.42762835e-01
107.132         	-1.42762835e-01
107.332         	-1.42762835e-01
107.532         	-1.42762835e-01
107.732         	-1.42762835e-01
107.932         	-1.42762835e-01
108.132         	-1.26372727e-01
108.332         	-1.26372727e-01
108.532         	-1.26372727e-01
108.732         	-1.26372727e-01
108.932         	-1.26372727e-01
109.132         	-1.26372727e-01
109.332         	-1.26372727e-01
109.532         	-1.26372727e-01
109.732         	-1.26372727e-01
109.932         	-1.26372727e-01
110.132         	-1.22989588e-01
110.332         	-1.22989588e-01
110.532         	-1.22989588e-01
110.732         	-1.22989588e-01
110.932         	-1.22989588e-01
111.132         	-1.22989588e-01
111.332         	-1.22989588e-01
111.532         	-1.22989588e-01
111.732         	-1.22989588e-01
111.932         	-1.22989588e-01
112.132         	-1.39052676e-01
112.332         	-1.39052676e-01
112.532         	-1.39052676e-01
112.732         	-1.39052676e-01
112.932         	-1.39052676e-01
113.132         	-1.39052676e-01
113.332         	-1.39052676e-01
113.532         	-1.39052676e-01
113.732         	-1.39052676e-01
113.932         	-1.39052676e-01
114.132         	-1.18776241e-01
114.332         	-1.18776241e-01
114.532         	-1.18776241e-01
114.732         	-1.18776241e-01
114.932         	-1.18776241e-01
115.132         	-1.18776241e-01
115.332         	-1.18776241e-01
115.532         	-1.18776241e-01
115.732         	-1.18776241e-01
115.932         	-1.18776241e-01
116.132         	-1.20610606e-01
116.332         	-1.20610606e-01
116.532         	-1.20610606e-01
116.732         	-1.20610606e-01
116.932         	-1.20610606e-01
117.132         	-1.20610606e-01
117.332         	-1.20610606e-01
117.532         	-1.20610606e-01
117.732         	-1.20610606e-01
117.932         	-1.20610606e-01
118.132         	-1.15970364e-01
118.332         	-1.15970364e-01
118.532         	-1.15970364e-01
118.732         	-1.15970364e-01
118.932         	-1.15970364e-01
119.132         	-1.15970364e-01
119.332         	-1.15970364e-01
119.532         	-1.15970364e-01
119.732         	-1.15970364e-01
119.932         	-1.15970364e-01
120.132         	-1.14780704e-01
120.332         	-1.14780704e-01
120.532         	-1.14780704e-01
120.732         	-1.14780704e-01
120.932         	-1.14780704e-01
121.132         	-1.14780704e-01
121.332         	-1.14780704e-01
121.532         	-1.14780704e-01
121.732         	-1.14780704e-01
121.932         	-1.14780704e-01
122.132         	-1.08188539e-01
122.332         	-1.08188539e-01
122.532         	-1.08188539e-01
122.732         	-1.08188539e-01
122.932         	-1.08188539e-01
123.132         	-1.08188539e-01
123.332         	-1.08188539e-01
123.532         	-1.08188539e-01
123.732         	-1.08188539e-01
123.932         	-1.08188539e-01
124.132         	-1.10812103e-01
124.332         	-1.10812103e-01
124.532         	-1.10812103e-01
124.732         	-1.10812103e-01
124.932         	-1.10812103e-01
125.132         	-1.10812103e-01
125.332         	-1.10812103e-01
125.532         	-1.10812103e-01
125.732         	-1.10812103e-01
125.932         	-1.10812103e-01
126.132         	-1.19643220e-01
126.332         	-1.19643220e-01
126.532         	-1.19643220e-01
126.732         	-1.19643220e-01
126.932         	-1.19643220e-01
127.132         	-1.19643220e-01
127.332         	-1.19643220e-01
127.532         	-1.19643220e-01
127.732         	-1.19643220e-01
127.932         	-1.19643220e-01
128.132         	-1.12575486e-01
128.332         	-1.12575486e-01
128.532         	-1.12575486e-01
128.732         	-1.12575486e-01
128.932         	-1.12575486e-01
129.132         	-1.12575486e-01
129.332         	-1.12575486e-01
129.532         	-1.12575486e-01
129.732         	-1.12575486e-01
129.932         	-1.12575486e-01
130.132         	-1.30673195e-01
130.332         	-1.30673195e-01
130.532         	-1.30673195e-01
130.732         	-1.30673195e-01
130.932         	-1.30673195e-01
131.132         	-1.30673195e-01
131.332         	-1.30673195e-01
131.532         	-1.30673195e-01
131.732         	-1.30673195e-01
131.932         	-1.30673195e-01
132.132         	-1.22031194e-01
132.332         	-1.22031194e-01
132.532         	-1.22031194e-01
132.732         	-1.22031194e-01
132.932         	-1.22031194e-01
133.132         	-1.22031194e-01
133.332         	-1.22031194e-01
133.532         	-1.22031194e-01
133.732         	-1.22031194e-01
133.932         	-1.22031194e-01
134.132         	-1.04491075e-01
134.332         	-1.04491075e-01
134.532         	-1.04491075e-01
134.732         	-1.04491075e-01
134.932         	-1.04491075e-01
135.132         	-1.04491075e-01
135.332         	-1.04491075e-01
135.532         	-1.04491075e-01
135.732         	-1.04491075e-01
135.932         	-1.04491075e-01
136.132         	-1.23819432e-01
136.332         	-1.23819432e-01
136.532         	-1.23819432e-01
136.732         	-1.23819432e-01
136.932         	-1.23819432e-01
137.132         	-1.23819432e-01
137.332         	-1.23819432e-01
137.532         	-1.23819432e-01
137.732         	-1.23819432e-01
137.932         	-1.23819432e-01
138.132         	-1.07005760e-01
138.332         	-1.07005760e-01
138.532         	-1.07005760e-01
138.732         	-1.07005760e-01
138.932         	-1.07005760e-01
139.132         	-1.07005760e-01
139.332         	-1.07005760e-01
139.532         	-1.07005760e-01
139.732         	-1.07005760e-01
139.932         	-1.07005760e-01
140.132         	-1.15885475e-01
140.332         	-1.15885475e-01
140.532         	-1.15885475e-01
140.732         	-1.15885475e-01
140.932         	-1.15885475e-01
141.132         	-1.15885475e-01
141.332         	-1.15885475e-01
141.532         	-1.15885475e-01
141.732         	-1.15885475e-01
141.932         	-1.15885475e-01
142.132         	-1.27363964e-01
142.332         	-1.27363964e-01
142.532         	-1.27363964e-01
142.732         	-1.27363964e-01
142.932         	-1.27363964e-01
143.132         	-1.27363964e-01
143.332         	-1.27363964e-01
143.532         	-1.27363964e-01
143.732         	-1.27363964e-01
143.932         	-1.27363964e-01
144.132         	-1.11380749e-01
144.332         	-1.11380749e-01
144.532         	-1.11380749e-01
144.732         	-1.11380749e-01
144.932         	-1.11380749e-01
145.132         	-1.11380749e-01
145.332         	-1.11380749e-01
145.532         	-1.11380749e-01
145.732         	-1.11380749e-01
145.932         	-1.11380749e-01
146.132         	-1.05494856e-01
146.332         	-1.05494856e-01
146.532         	-1.05494856e-01
146.732         	-1.05494856e-01
146.932         	-1.05494856e-01
147.132         	-1.05494856e-01
147.332         	-1.05494856e-01
147.532         	-1.05494856e-01
147.732         	-1.05494856e-01
147.932         	-1.05494856e-01
148.132         	-1.15453895e-01
148.332         	-1.15453895e-01
148.532         	-1.15453895e-01
148.732         	-1.15453895e-01
148.932         	-1.15453895e-01
149.132         	-1.15453895e-01
149.332         	-1.15453895e-01
149.532         	-1.15453895e-01
149.732         	-1.15453895e-01
149.932         	-1.15453895e-01
150.132         	-1.18990896e-01
150.332         	-1.18990896e-01
150.532         	-1.18990896e-01
150.732         	-1.18990896e-01
150.932         	-1.18990896e-01
151.132         	-1.18990896e-01
151.332         	-1.18990896e-01
151.532         	-1.18990896e-01
151.732         	-1.18990896e-01
151.932         	-1.18990896e-01
152.132         	-9.60074840e-02
152.332         	-9.60074840e-02
152.532         	-9.60074840e-02
152.732         	-9.60074840e-02
152.932         	-9.60074840e-02
153.132         	-9.60074840e-02
153.332         	-9.60074840e-02
153.532         	-9.60074840e-02
153.732         	-9.60074840e-02
153.932         	-9.60074840e-02
154.132         	-1.03334983e-01
154.332         	-1.03334983e-01
154.532         	-1.03334983e-01
154.732         	-1.03334983e-01
154.932         	-1.03334983e-01
155.132         	-1.03334983e-01
155.332         	-1.03334983e-01
155.532         	-1.03334983e-01
155.732         	-1.03334983e-01
155.932         	-1.03334983e-01
156.132         	-1.20658950e-01
156.332         	-1.20658950e-01
156.532         	-1.20658950e-01
156.732         	-1.20658950e-01
156.932         	-1.20658950e-01
157.132         	-1.20658950e-01
157.332         	-1.20658950e-01
157.532         	-1.20658950e-01
157.732         	-1.20658950e-01
157.932         	-1.20658950e-01
158.132         	-9.92427273e-02
158.332         	-9.92427273e-02
158.532         	-9.92427273e-02
158.732         	-9.92427273e-02
158.932         	-9.92427273e-02
159.132         	-9.92427273e-02
159.332         	-9.92427273e-02
159.532         	-9.92427273e-02
159.732         	-9.92427273e-02
159.932         	-9.92427273e-02
160.132         	-9.12582871e-02
160.332         	-9.12582871e-02
160.532         	-9.12582871e-02
160.732         	-9.12582871e-02
160.932         	-9.12582871e-02
161.132         	-9.12582871e-02
161.332         	-9.12582871e-02
161.532         	-9.12582871e-02
161.732         	-9.12582871e-02
161.932         	-9.12582871e-02
162.132         	-1.08989503e-01
162.332         	-1.08989503e-01
162.532         	-1.08989503e-01
162.732         	-1.08989503e-01
162.932         	-1.08989503e-01
163.132         	-1.08989503e-01
163.332         	-1.08989503e-01
163.532         	-1.08989503e-01
163.732         	-1.08989503e-01
163.932         	-1.08989503e-01
164.132         	-1.19837614e-01
164.332         	-1.19837614e-01
164.532         	-1.19837614e-01
164.732         	-1.19837614e-01
164.932         	-1.19837614e-01
165.132         	-1.19837614e-01
165.332         	-1.19837614e-01
165.532         	-1.19837614e-01
165.732         	-1.19837614e-01
165.932         	-1.19837614e-01
166.132         	-1.07713689e-01
166.332         	-1.07713689e-01
166.532         	-1.07713689e-01
166.732         	-1.07713689e-01
166.932         	-1.07713689e-01
167.132         	-1.07713689e-01
167.332         	-1.07713689e-01
167.532         	-1.07713689e-01
167.732         	-1.07713689e-01
167.932         	-1.07713689e-01
168.132         	-1.14105305e-01
168.332         	-1.14105305e-01
168.532         	-1.14105305e-01
168.732         	-1.14105305e-01
168.932         	-1.14105305e-01
169.132         	-1.14105305e-01
169.332         	-1.14105305e-01
169.532         	-1.14105305e-01
169.732         	-1.14105305e-01
169.932         	-1.14105305e-01
170.132         	-1.26872880e-01
170.332         	-1.26872880e-01
170.532         	-1.26872880e-01
170.732         	-1.26872880e-01
170.932         	-1.26872880e-01
171.132         	-1.26872880e-01
171.332         	-1.26872880e-01
171.532         	-1.26872880e-01
171.732         	-1.26872880e-01
171.932         	-1.26872880e-01
172.132         	-9.90861502e-02
172.332         	-9.90861502e-02
172.532         	-9.90861502e-02
172.732         	-9.90861502e-02
172.932         	-9.90861502e-02
173.132         	-9.90861502e-02
173.332         	-9.90861502e-02
173.532         	-9.90861502e-02
173.732         	-9.90861502e-02
173.932         	-9.90861502e-02
174.132         	-1.21588460e-01
174.332         	-1.21588460e-01
174.532         	-1.21588460e-01
174.732         	-1.21588460e-01
174.932         	-1.21588460e-01
175.132         	-1.21588460e-01
175.332         	-1.21588460e-01
175.532         	-1.21588460e-01
175.732         	-1.21588460e-01
175.932         	-1.21588460e-01
176.132         	-1.29799437e-01
176.332         	-1.29799437e-01
176.532         	-1.29799437e-01
176.732         	-1.29799437e-01
176.932         	-1.29799437e-01
177.132         	-1.29799437e-01
177.332         	-1.29799437e-01
177.532         	-1.29799437e-01
177.732         	-1.29799437e-01
177.932         	-1.29799437e-01
178.132         	-1.09135284e-01
178.332         	-1.09135284e-01
178.532         	-1.09135284e-01
178.732         	-1.09135284e-01
178.932         	-1.09135284e-01
179.132         	-1.09135284e-01
179.332         	-1.09135284e-01
179.532         	-1.09135284e-01
179.732         	-1.09135284e-01
179.932         	-1.09135284e-01
180.132         	-1.18773857e-01
180.332         	-1.18773857e-01
180.532         	-1.18773857e-01