# Region type : faceZone InSurface
# Faces  :      1448
# Area   :      5.58176731e+01
# Time          	areaAverage(surfaceInterpolate(p))
0               	0.00000000e+00
0.1             	1.05696545e-01
0.2             	9.99425418e-02
0.3             	1.02296989e-01
0.4             	1.09593204e-01
0.5             	1.18813808e-01
0.9             	1.99366695e-01
1               	2.30410539e-01
1.5             	3.30981441e-01
2               	3.44379092e-01
2.2             	2.88089622e-01
2.5             	2.04829322e-01
3               	2.69405870e-01
3.5             	3.11348337e-01
4               	2.68093008e-01
4.5             	2.82683080e-01
5               	2.96030850e-01
5.5             	2.73024694e-01
6               	2.65528101e-01
6.1             	2.65108493e-01
6.5             	2.60520762e-01
7               	2.50434123e-01
7.5             	2.26294918e-01
8               	2.03892602e-01
8.5             	2.03294483e-01
9               	2.00208675e-01
9.5             	2.01111991e-01
10              	2.12673383e-01
10.5            	2.18282887e-01
11              	2.11821880e-01
11.5            	1.92409782e-01
12              	1.82563370e-01
12.5            	1.80879472e-01
13              	1.90470909e-01
13.5            	1.93673282e-01
14              	2.03416046e-01
14.5            	2.07771898e-01
15              	2.06680518e-01
15.5            	2.02420856e-01
16              	1.99531975e-01
16.5            	1.97558438e-01
17              	1.94231682e-01
17.5            	1.91842867e-01
18              	2.00706524e-01
18.5            	2.10889982e-01
19              	2.13171761e-01
19.5            	2.05014682e-01
20              	1.99141960e-01
20.5            	1.99187985e-01
21              	1.97757130e-01
21.5            	1.93118111e-01
22              	1.99259998e-01
22.5            	2.00949410e-01
23              	2.00489960e-01
23.5            	2.04871985e-01
24              	2.06957686e-01
24.5            	2.07181057e-01
25              	2.03473480e-01
25.5            	1.99904473e-01
26              	1.96340840e-01
26.5            	1.97014878e-01
27              	2.01801067e-01
27.5            	2.07748222e-01
28              	2.09665226e-01
28.5            	2.04382907e-01
29              	2.02442906e-01
29.5            	2.02958346e-01
30              	2.01557932e-01
30.5            	1.99254225e-01
31              	1.97839995e-01
31.5            	1.97744883e-01
32              	2.01297265e-01
32.5            	2.08437673e-01
33              	2.09086827e-01
33.5            	2.01197152e-01
34              	1.98564548e-01
34.5            	2.02256604e-01
35              	2.04741227e-01
35.5            	2.00193964e-01
36              	1.98269538e-01
36.5            	2.03453068e-01
37              	2.06810423e-01
37.5            	2.08766919e-01
38              	2.06773770e-01
38.5            	2.07651781e-01
39              	2.04490387e-01
39.5            	1.95471093e-01
40              	1.90508638e-01
40.5            	1.96014560e-01
41              	2.05276348e-01
41.5            	2.08286770e-01
42              	2.10467077e-01
42.5            	2.10097254e-01
43              	2.06992845e-01
43.5            	2.04448001e-01
44              	2.02443532e-01
44.5            	2.03917452e-01
45              	2.08854833e-01
45.5            	2.10820485e-01
46              	2.06233632e-01
46.5            	2.03856481e-01
47              	2.03680467e-01
47.5            	2.04913952e-01
48              	2.06722255e-01
48.5            	2.03645272e-01
49              	2.01797472e-01
49.5            	1.99938253e-01
50              	2.00166444e-01
50.5            	2.01370534e-01
51              	2.04444445e-01
51.5            	2.06342675e-01
52              	2.07975617e-01
52.5            	2.09161371e-01
53              	2.06176022e-01
53.5            	1.99615373e-01
54              	2.01423452e-01
54.5            	2.07429742e-01
55              	2.10039072e-01
55.5            	2.10599854e-01
56              	2.11050378e-01
56.5            	2.09237586e-01
57              	2.06950220e-01
57.5            	2.08783317e-01
58              	2.06698388e-01
58.5            	2.04576406e-01
59              	2.04114890e-01
59.5            	2.04876288e-01
60              	2.05067507e-01
60.5            	2.09566148e-01
61              	2.11651103e-01
61.5            	2.09154755e-01
62              	2.07177121e-01
62.5            	2.03091489e-01
63              	1.99783774e-01
63.5            	2.04516000e-01
64              	2.09924262e-01
64.5            	2.08779022e-01
65              	2.11489208e-01
65.5            	2.13955175e-01
66              	2.14399326e-01
66.5            	2.10089480e-01
67              	2.04963442e-01
67.5            	2.07769645e-01
68              	2.13340513e-01
68.5            	2.15213324e-01
69              	2.15393573e-01
69.5            	2.13810681e-01
70              	2.12681200e-01
70.5            	2.12889088e-01
71              	2.10920126e-01
71.5            	2.06963566e-01
72              	2.07566471e-01
72.5            	2.05300177e-01
73              	2.03931231e-01
73.5            	2.10976142e-01
74              	2.15290331e-01
74.5            	2.13408391e-01
75              	2.10285976e-01
75.5            	2.11879846e-01
76              	2.16875414e-01
76.5            	2.15169438e-01
77              	2.12195839e-01
77.5            	2.10629512e-01
78              	2.07730840e-01
78.5            	2.12618846e-01
79              	2.16856228e-01
79.5            	2.17701626e-01
80              	2.13049210e-01
80.5            	2.11094474e-01
81              	2.06363932e-01
81.5            	2.10273754e-01
82              	2.16443423e-01
82.5            	2.13216791e-01
83              	2.05876473e-01
83.5            	2.08839461e-01
84              	2.14022782e-01
84.5            	2.11875733e-01
85              	2.04870683e-01
85.5            	2.09276943e-01
86              	2.13923760e-01
86.5            	2.13913026e-01
87              	2.11462066e-01
87.5            	2.10461044e-01
88              	2.12889903e-01
88.5            	2.14711453e-01
89              	2.12998311e-01
89.5            	2.12793626e-01
90              	2.17579842e-01
90.5            	2.21419639e-01
91              	2.19616805e-01
91.5            	2.13701334e-01
92              	2.08272449e-01
92.5            	2.09660825e-01
93              	2.14492790e-01
93.5            	2.15474134e-01
94              	2.12812363e-01
94.5            	2.12141451e-01
95              	2.13634415e-01
95.5            	2.14159106e-01
96              	2.15121918e-01
96.5            	2.13467865e-01
97              	2.13440350e-01
97.5            	2.18987081e-01
98              	2.19685256e-01
98.5            	2.12789683e-01
99              	2.11964507e-01
99.5            	2.15785794e-01
100             	2.18603690e-01      
102             	2.13331602e-01
104             	2.18116752e-01
106             	2.14476235e-01
108             	2.11403081e-01
110             	2.19336590e-01
112             	2.16430135e-01
114             	2.19947987e-01
116             	2.05819255e-01
118             	2.11654997e-01
120             	2.22358484e-01
122             	2.13817197e-01
124             	2.16257974e-01
126             	2.15189164e-01
128             	2.17392937e-01
130             	2.14818838e-01
132             	2.17556934e-01
134             	2.20952360e-01
136             	2.13206434e-01
138             	2.20321776e-01
140             	2.16737191e-01
142             	2.25691030e-01
144             	2.17683546e-01
146             	2.16292965e-01
148             	2.27089807e-01
150             	2.12209674e-01
152             	2.22333443e-01
154             	2.16672518e-01
156             	2.17245168e-01
158             	2.22655208e-01
160             	2.16684742e-01
162             	2.28709313e-01
164             	2.18913045e-01
166             	2.18904325e-01
168             	2.21695728e-01
170             	2.13808407e-01
172             	2.22124866e-01
174             	2.18489167e-01
176             	2.19865848e-01
178             	2.27632010e-01
180             	2.19870358e-01
182             	2.20264702e-01
184             	2.20969444e-01
186             	2.17502983e-01
188             	2.25170461e-01
190             	2.22163408e-01      
192             	2.22229212e-01
194             	2.22133820e-01
196             	2.14322616e-01
198             	2.18968175e-01
200             	2.24640977e-01
202             	2.13816326e-01
204             	2.20563414e-01
206             	2.20793431e-01
208             	2.20093254e-01
210             	2.19806976e-01
212             	2.19510375e-01
214             	2.23756613e-01
216             	2.23184968e-01
218             	2.28339086e-01
220             	2.29279801e-01
222             	2.24788404e-01
224             	2.19850130e-01
226             	2.19529379e-01
228             	2.29128420e-01
230             	2.25620185e-01
232             	2.20496012e-01
234             	2.19355420e-01
236             	2.26551864e-01
238             	2.25786177e-01
240             	2.23744065e-01
242             	2.25543703e-01
244             	2.30364979e-01
246             	2.32538908e-01
248             	2.27561053e-01
250             	2.25140499e-01
252             	2.21659074e-01
254             	2.22772216e-01
256             	2.29626450e-01
258             	2.21756631e-01
260             	2.24358670e-01
262             	2.20714396e-01
264             	2.16481707e-01
266             	2.25713789e-01
268             	2.23737173e-01
270             	2.20809305e-01
272             	2.20332879e-01
274             	2.19894729e-01
276             	2.26402875e-01
278             	2.19593997e-01
280             	2.21194384e-01
282             	2.22607256e-01
284             	2.18204248e-01
286             	2.24068237e-01
288             	2.31343219e-01
290             	2.19849283e-01
292             	2.19809266e-01
294             	2.25340018e-01
296             	2.24987979e-01
298             	2.23063171e-01
300             	2.26151507e-01          
