# Region type : faceZone OutSurface
# Faces  :      1628
# Area   :      4.10512472e+01
# Time          	areaAverage(surfaceInterpolate(p))
0               	0.00000000e+00
0.1             	4.95639372e-03
0.2             	9.27482122e-03         
0.3             	7.25511787e-03
0.4             	1.08620341e-03
0.5             	-6.72846218e-03
0.9             	-7.45915747e-02
1               	-1.00724228e-01
1.5             	-1.92648540e-01
2               	-2.07945480e-01
2.2             	-1.58514128e-01
2.5             	-7.70763214e-02
3               	-1.06459389e-01
3.5             	-1.42916389e-01
4               	-1.04924585e-01
4.5             	-9.86194912e-02
5               	-9.86082684e-02
5.5             	-6.96891324e-02
6               	-5.63193721e-02
6.1             	-5.67235300e-02
6.5             	-7.49331578e-02
7               	-1.08654105e-01
7.5             	-1.16661707e-01
8               	-1.06480858e-01
8.5             	-1.07737082e-01
9               	-1.20678997e-01
9.5             	-1.28358544e-01
10              	-1.43134148e-01
10.5            	-1.73381361e-01
11              	-2.08595105e-01
11.5            	-2.31451510e-01
12              	-2.51344816e-01
12.5            	-2.71220369e-01
13              	-2.86498008e-01
13.5            	-2.77763589e-01
14              	-2.73561115e-01
14.5            	-2.80034327e-01
15              	-2.98003150e-01
15.5            	-3.23466385e-01
16              	-3.49886462e-01
16.5            	-3.64694450e-01
17              	-3.65245368e-01
17.5            	-3.57562372e-01
18              	-3.55997886e-01
18.5            	-3.54075273e-01
19              	-3.46565124e-01
19.5            	-3.31926042e-01
20              	-3.21881702e-01
20.5            	-3.14945656e-01
21              	-3.01333820e-01
21.5            	-2.78159152e-01
22              	-2.60340958e-01
22.5            	-2.45694166e-01
23              	-2.33293152e-01
23.5            	-2.31052122e-01
24              	-2.35915567e-01
24.5            	-2.40888669e-01
25              	-2.41513207e-01
25.5            	-2.40901720e-01
26              	-2.33978191e-01
26.5            	-2.26654747e-01
27              	-2.19489099e-01
27.5            	-2.12101554e-01
28              	-2.09557147e-01
28.5            	-2.10877184e-01
29              	-2.17285412e-01
29.5            	-2.25312848e-01
30              	-2.26576726e-01
30.5            	-2.23462799e-01
31              	-2.17368330e-01
31.5            	-2.09154774e-01
32              	-2.07076823e-01
32.5            	-2.09801593e-01
33              	-2.14121474e-01
33.5            	-2.17205278e-01
34              	-2.22540259e-01
34.5            	-2.28518191e-01
35              	-2.23865705e-01
35.5            	-2.08355951e-01
36              	-1.96483268e-01
36.5            	-1.92478475e-01
37              	-1.92158128e-01
37.5            	-1.96932620e-01
38              	-2.03460116e-01
38.5            	-2.11895789e-01
39              	-2.15837589e-01
39.5            	-2.10799898e-01
40              	-2.05115251e-01
40.5            	-2.04712879e-01
41              	-2.04320769e-01
41.5            	-2.02370833e-01
42              	-1.99503061e-01
42.5            	-1.98180194e-01
43              	-1.99906091e-01
43.5            	-2.00975203e-01
44              	-1.98030227e-01
44.5            	-1.95338798e-01
45              	-1.91522951e-01
45.5            	-1.85356029e-01
46              	-1.80010808e-01
46.5            	-1.84253201e-01
47              	-1.93184877e-01
47.5            	-2.02500141e-01
48              	-2.08838383e-01
48.5            	-2.05184905e-01
49              	-1.97791434e-01
49.5            	-1.86891379e-01
50              	-1.78526849e-01
50.5            	-1.72593113e-01
51              	-1.73597497e-01
51.5            	-1.81217066e-01
52              	-1.90314790e-01
52.5            	-1.94823314e-01
53              	-1.93065884e-01
53.5            	-1.86211003e-01
54              	-1.83232022e-01
54.5            	-1.81850635e-01
55              	-1.77845591e-01
55.5            	-1.75079258e-01
56              	-1.76516599e-01
56.5            	-1.80211584e-01
57              	-1.86652460e-01
57.5            	-1.93806650e-01
58              	-1.92975441e-01
58.5            	-1.91733756e-01
59              	-1.87816600e-01
59.5            	-1.83501211e-01
60              	-1.80303823e-01
60.5            	-1.82567615e-01
61              	-1.88351605e-01
61.5            	-1.90288798e-01
62              	-1.87242137e-01
62.5            	-1.84195888e-01
63              	-1.80900468e-01
63.5            	-1.79474032e-01
64              	-1.76551807e-01
64.5            	-1.72690807e-01
65              	-1.75203848e-01
65.5            	-1.83286274e-01
66              	-1.89003064e-01
66.5            	-1.88304838e-01
67              	-1.80961802e-01
67.5            	-1.77661835e-01
68              	-1.76815349e-01
68.5            	-1.72018868e-01
69              	-1.67815002e-01
69.5            	-1.65279762e-01
70              	-1.67085454e-01
70.5            	-1.71764210e-01
71              	-1.76604599e-01
71.5            	-1.76541371e-01
72              	-1.75577651e-01
72.5            	-1.70231373e-01
73              	-1.65280891e-01
73.5            	-1.68421914e-01
74              	-1.70095972e-01
74.5            	-1.69166251e-01
75              	-1.68056232e-01
75.5            	-1.69788543e-01
76              	-1.74551214e-01
76.5            	-1.73397171e-01
77              	-1.70040562e-01
77.5            	-1.70407341e-01
78              	-1.71197268e-01
78.5            	-1.75338264e-01
79              	-1.77084605e-01
79.5            	-1.74737050e-01
80              	-1.69721985e-01
80.5            	-1.68342145e-01
81              	-1.65130160e-01
81.5            	-1.66667331e-01
82              	-1.69111586e-01
82.5            	-1.63221245e-01
83              	-1.56900114e-01
83.5            	-1.60646159e-01
84              	-1.63757320e-01
84.5            	-1.61035573e-01
85              	-1.56103206e-01
85.5            	-1.61844168e-01
86              	-1.68288820e-01
86.5            	-1.67453815e-01
87              	-1.62640665e-01
87.5            	-1.60774100e-01
88              	-1.62869519e-01
88.5            	-1.63835449e-01
89              	-1.61040499e-01
89.5            	-1.59267877e-01
90              	-1.61966356e-01
90.5            	-1.65893929e-01
91              	-1.66554325e-01
91.5            	-1.62094323e-01
92              	-1.58493996e-01
92.5            	-1.61047210e-01
93              	-1.67658490e-01
93.5            	-1.69375392e-01
94              	-1.66465936e-01
94.5            	-1.66446509e-01
95              	-1.69846952e-01
95.5            	-1.69451831e-01
96              	-1.67316169e-01
96.5            	-1.63967359e-01
97              	-1.60985346e-01
97.5            	-1.62150432e-01
98              	-1.61855112e-01
98.5            	-1.57389620e-01
99              	-1.60291641e-01
99.5            	-1.67419946e-01
100             	-1.71914774e-01     
102             	-1.60596888e-01
104             	-1.55597206e-01
106             	-1.67626734e-01
108             	-1.59570489e-01
110             	-1.58788526e-01
112             	-1.70101588e-01
114             	-1.47580391e-01
116             	-1.57423974e-01
118             	-1.55848297e-01
120             	-1.44811829e-01
122             	-1.63225465e-01
124             	-1.51072437e-01
126             	-1.60419324e-01
128             	-1.49797090e-01
130             	-1.55069609e-01
132             	-1.58414144e-01
134             	-1.49366651e-01
136             	-1.58861546e-01
138             	-1.51496234e-01
140             	-1.52366969e-01
142             	-1.55111002e-01
144             	-1.60675802e-01
146             	-1.59501760e-01
148             	-1.46415639e-01
150             	-1.48365736e-01
152             	-1.40151142e-01
154             	-1.47627453e-01
156             	-1.43193651e-01
158             	-1.53231256e-01
160             	-1.48261794e-01
162             	-1.44326592e-01
164             	-1.50017715e-01
166             	-1.55072848e-01
168             	-1.53052683e-01
170             	-1.43050623e-01
172             	-1.46596078e-01
174             	-1.55301188e-01
176             	-1.50393195e-01
178             	-1.49085294e-01
180             	-1.55300305e-01
182             	-1.40571026e-01
184             	-1.48112700e-01
186             	-1.48097237e-01
188             	-1.52478746e-01
190             	-1.50013696e-01      
192             	-1.46544648e-01
194             	-1.46893475e-01
196             	-1.47775908e-01
198             	-1.46554912e-01
200             	-1.55840485e-01
202             	-1.53265305e-01
204             	-1.52599532e-01
206             	-1.52343211e-01
208             	-1.50593771e-01
210             	-1.59286114e-01
212             	-1.47097314e-01
214             	-1.32329334e-01
216             	-1.44171307e-01
218             	-1.40276015e-01
220             	-1.42457928e-01
222             	-1.35535154e-01
224             	-1.46377498e-01
226             	-1.37796245e-01
228             	-1.43485464e-01
230             	-1.46056390e-01
232             	-1.46481825e-01
234             	-1.39587726e-01
236             	-1.36254567e-01
238             	-1.43096283e-01
240             	-1.54097704e-01
242             	-1.46695024e-01
244             	-1.35716649e-01
246             	-1.31565559e-01
248             	-1.46283904e-01
250             	-1.45153446e-01
252             	-1.33826008e-01
254             	-1.41092141e-01
256             	-1.47385424e-01
258             	-1.44356507e-01
260             	-1.37104122e-01
262             	-1.42425868e-01
264             	-1.45899417e-01
266             	-1.41122373e-01
268             	-1.46376050e-01
270             	-1.48489970e-01
272             	-1.47183380e-01
274             	-1.38139762e-01
276             	-1.47170284e-01
278             	-1.43404910e-01
280             	-1.48143950e-01
282             	-1.38807326e-01
284             	-1.41961193e-01
286             	-1.54372858e-01
288             	-1.59290307e-01
290             	-1.52931962e-01
292             	-1.42611998e-01
294             	-1.53676171e-01
296             	-1.43979025e-01
298             	-1.44982252e-01
300             	-1.51802752e-01